LAMMPS data file for only_LC

2997 atoms
1998 ellipsoids
999 bonds
999 angles

3 atom types
1 bond types
1 angle types

0 260 xlo xhi
0 260 ylo yhi
0 260 zlo zhi

Masses

1 1.0
2 1.0
3 0.001

Atoms

1 2 5 2.5 0 2 1 1
2 3 5 4.0 0 2 0 1
3 1 5 5 0 1 1 1
4 2 10 2.5 0 3 1 1
5 3 10 4.0 0 3 0 1
6 1 10 5 0 1 1 1
7 2 15 2.5 0 4 1 1
8 3 15 4.0 0 4 0 1
9 1 15 5 0 1 1 1
10 2 20 2.5 0 5 1 1
11 3 20 4.0 0 5 0 1
12 1 20 5 0 1 1 1
13 2 25 2.5 0 6 1 1
14 3 25 4.0 0 6 0 1
15 1 25 5 0 1 1 1
16 2 30 2.5 0 7 1 1
17 3 30 4.0 0 7 0 1
18 1 30 5 0 1 1 1
19 2 35 2.5 0 8 1 1
20 3 35 4.0 0 8 0 1
21 1 35 5 0 1 1 1
22 2 40 2.5 0 9 1 1
23 3 40 4.0 0 9 0 1
24 1 40 5 0 1 1 1
25 2 45 2.5 0 10 1 1
26 3 45 4.0 0 10 0 1
27 1 45 5 0 1 1 1
28 2 50 2.5 0 11 1 1
29 3 50 4.0 0 11 0 1
30 1 50 5 0 1 1 1
31 2 55 2.5 0 12 1 1
32 3 55 4.0 0 12 0 1
33 1 55 5 0 1 1 1
34 2 60 2.5 0 13 1 1
35 3 60 4.0 0 13 0 1
36 1 60 5 0 1 1 1
37 2 65 2.5 0 14 1 1
38 3 65 4.0 0 14 0 1
39 1 65 5 0 1 1 1
40 2 70 2.5 0 15 1 1
41 3 70 4.0 0 15 0 1
42 1 70 5 0 1 1 1
43 2 75 2.5 0 16 1 1
44 3 75 4.0 0 16 0 1
45 1 75 5 0 1 1 1
46 2 80 2.5 0 17 1 1
47 3 80 4.0 0 17 0 1
48 1 80 5 0 1 1 1
49 2 85 2.5 0 18 1 1
50 3 85 4.0 0 18 0 1
51 1 85 5 0 1 1 1
52 2 90 2.5 0 19 1 1
53 3 90 4.0 0 19 0 1
54 1 90 5 0 1 1 1
55 2 95 2.5 0 20 1 1
56 3 95 4.0 0 20 0 1
57 1 95 5 0 1 1 1
58 2 100 2.5 0 21 1 1
59 3 100 4.0 0 21 0 1
60 1 100 5 0 1 1 1
61 2 105 2.5 0 22 1 1
62 3 105 4.0 0 22 0 1
63 1 105 5 0 1 1 1
64 2 110 2.5 0 23 1 1
65 3 110 4.0 0 23 0 1
66 1 110 5 0 1 1 1
67 2 115 2.5 0 24 1 1
68 3 115 4.0 0 24 0 1
69 1 115 5 0 1 1 1
70 2 120 2.5 0 25 1 1
71 3 120 4.0 0 25 0 1
72 1 120 5 0 1 1 1
73 2 125 2.5 0 26 1 1
74 3 125 4.0 0 26 0 1
75 1 125 5 0 1 1 1
76 2 130 2.5 0 27 1 1
77 3 130 4.0 0 27 0 1
78 1 130 5 0 1 1 1
79 2 135 2.5 0 28 1 1
80 3 135 4.0 0 28 0 1
81 1 135 5 0 1 1 1
82 2 140 2.5 0 29 1 1
83 3 140 4.0 0 29 0 1
84 1 140 5 0 1 1 1
85 2 145 2.5 0 30 1 1
86 3 145 4.0 0 30 0 1
87 1 145 5 0 1 1 1
88 2 150 2.5 0 31 1 1
89 3 150 4.0 0 31 0 1
90 1 150 5 0 1 1 1
91 2 155 2.5 0 32 1 1
92 3 155 4.0 0 32 0 1
93 1 155 5 0 1 1 1
94 2 160 2.5 0 33 1 1
95 3 160 4.0 0 33 0 1
96 1 160 5 0 1 1 1
97 2 165 2.5 0 34 1 1
98 3 165 4.0 0 34 0 1
99 1 165 5 0 1 1 1
100 2 170 2.5 0 35 1 1
101 3 170 4.0 0 35 0 1
102 1 170 5 0 1 1 1
103 2 175 2.5 0 36 1 1
104 3 175 4.0 0 36 0 1
105 1 175 5 0 1 1 1
106 2 180 2.5 0 37 1 1
107 3 180 4.0 0 37 0 1
108 1 180 5 0 1 1 1
109 2 185 2.5 0 38 1 1
110 3 185 4.0 0 38 0 1
111 1 185 5 0 1 1 1
112 2 190 2.5 0 39 1 1
113 3 190 4.0 0 39 0 1
114 1 190 5 0 1 1 1
115 2 195 2.5 0 40 1 1
116 3 195 4.0 0 40 0 1
117 1 195 5 0 1 1 1
118 2 200 2.5 0 41 1 1
119 3 200 4.0 0 41 0 1
120 1 200 5 0 1 1 1
121 2 205 2.5 0 42 1 1
122 3 205 4.0 0 42 0 1
123 1 205 5 0 1 1 1
124 2 210 2.5 0 43 1 1
125 3 210 4.0 0 43 0 1
126 1 210 5 0 1 1 1
127 2 215 2.5 0 44 1 1
128 3 215 4.0 0 44 0 1
129 1 215 5 0 1 1 1
130 2 220 2.5 0 45 1 1
131 3 220 4.0 0 45 0 1
132 1 220 5 0 1 1 1
133 2 225 2.5 0 46 1 1
134 3 225 4.0 0 46 0 1
135 1 225 5 0 1 1 1
136 2 230 2.5 0 47 1 1
137 3 230 4.0 0 47 0 1
138 1 230 5 0 1 1 1
139 2 235 2.5 0 48 1 1
140 3 235 4.0 0 48 0 1
141 1 235 5 0 1 1 1
142 2 240 2.5 0 49 1 1
143 3 240 4.0 0 49 0 1
144 1 240 5 0 1 1 1
145 2 245 2.5 0 50 1 1
146 3 245 4.0 0 50 0 1
147 1 245 5 0 1 1 1
148 2 250 2.5 0 51 1 1
149 3 250 4.0 0 51 0 1
150 1 250 5 0 1 1 1
151 2 255 2.5 0 52 1 1
152 3 255 4.0 0 52 0 1
153 1 255 5 0 1 1 1
154 2 5 2.5 5 53 1 1
155 3 5 4.0 5 53 0 1
156 1 5 5 5 1 1 1
157 2 10 2.5 5 54 1 1
158 3 10 4.0 5 54 0 1
159 1 10 5 5 1 1 1
160 2 15 2.5 5 55 1 1
161 3 15 4.0 5 55 0 1
162 1 15 5 5 1 1 1
163 2 20 2.5 5 56 1 1
164 3 20 4.0 5 56 0 1
165 1 20 5 5 1 1 1
166 2 25 2.5 5 57 1 1
167 3 25 4.0 5 57 0 1
168 1 25 5 5 1 1 1
169 2 30 2.5 5 58 1 1
170 3 30 4.0 5 58 0 1
171 1 30 5 5 1 1 1
172 2 35 2.5 5 59 1 1
173 3 35 4.0 5 59 0 1
174 1 35 5 5 1 1 1
175 2 40 2.5 5 60 1 1
176 3 40 4.0 5 60 0 1
177 1 40 5 5 1 1 1
178 2 45 2.5 5 61 1 1
179 3 45 4.0 5 61 0 1
180 1 45 5 5 1 1 1
181 2 50 2.5 5 62 1 1
182 3 50 4.0 5 62 0 1
183 1 50 5 5 1 1 1
184 2 55 2.5 5 63 1 1
185 3 55 4.0 5 63 0 1
186 1 55 5 5 1 1 1
187 2 60 2.5 5 64 1 1
188 3 60 4.0 5 64 0 1
189 1 60 5 5 1 1 1
190 2 65 2.5 5 65 1 1
191 3 65 4.0 5 65 0 1
192 1 65 5 5 1 1 1
193 2 70 2.5 5 66 1 1
194 3 70 4.0 5 66 0 1
195 1 70 5 5 1 1 1
196 2 75 2.5 5 67 1 1
197 3 75 4.0 5 67 0 1
198 1 75 5 5 1 1 1
199 2 80 2.5 5 68 1 1
200 3 80 4.0 5 68 0 1
201 1 80 5 5 1 1 1
202 2 85 2.5 5 69 1 1
203 3 85 4.0 5 69 0 1
204 1 85 5 5 1 1 1
205 2 90 2.5 5 70 1 1
206 3 90 4.0 5 70 0 1
207 1 90 5 5 1 1 1
208 2 95 2.5 5 71 1 1
209 3 95 4.0 5 71 0 1
210 1 95 5 5 1 1 1
211 2 100 2.5 5 72 1 1
212 3 100 4.0 5 72 0 1
213 1 100 5 5 1 1 1
214 2 105 2.5 5 73 1 1
215 3 105 4.0 5 73 0 1
216 1 105 5 5 1 1 1
217 2 110 2.5 5 74 1 1
218 3 110 4.0 5 74 0 1
219 1 110 5 5 1 1 1
220 2 115 2.5 5 75 1 1
221 3 115 4.0 5 75 0 1
222 1 115 5 5 1 1 1
223 2 120 2.5 5 76 1 1
224 3 120 4.0 5 76 0 1
225 1 120 5 5 1 1 1
226 2 125 2.5 5 77 1 1
227 3 125 4.0 5 77 0 1
228 1 125 5 5 1 1 1
229 2 130 2.5 5 78 1 1
230 3 130 4.0 5 78 0 1
231 1 130 5 5 1 1 1
232 2 135 2.5 5 79 1 1
233 3 135 4.0 5 79 0 1
234 1 135 5 5 1 1 1
235 2 140 2.5 5 80 1 1
236 3 140 4.0 5 80 0 1
237 1 140 5 5 1 1 1
238 2 145 2.5 5 81 1 1
239 3 145 4.0 5 81 0 1
240 1 145 5 5 1 1 1
241 2 150 2.5 5 82 1 1
242 3 150 4.0 5 82 0 1
243 1 150 5 5 1 1 1
244 2 155 2.5 5 83 1 1
245 3 155 4.0 5 83 0 1
246 1 155 5 5 1 1 1
247 2 160 2.5 5 84 1 1
248 3 160 4.0 5 84 0 1
249 1 160 5 5 1 1 1
250 2 165 2.5 5 85 1 1
251 3 165 4.0 5 85 0 1
252 1 165 5 5 1 1 1
253 2 170 2.5 5 86 1 1
254 3 170 4.0 5 86 0 1
255 1 170 5 5 1 1 1
256 2 175 2.5 5 87 1 1
257 3 175 4.0 5 87 0 1
258 1 175 5 5 1 1 1
259 2 180 2.5 5 88 1 1
260 3 180 4.0 5 88 0 1
261 1 180 5 5 1 1 1
262 2 185 2.5 5 89 1 1
263 3 185 4.0 5 89 0 1
264 1 185 5 5 1 1 1
265 2 190 2.5 5 90 1 1
266 3 190 4.0 5 90 0 1
267 1 190 5 5 1 1 1
268 2 195 2.5 5 91 1 1
269 3 195 4.0 5 91 0 1
270 1 195 5 5 1 1 1
271 2 200 2.5 5 92 1 1
272 3 200 4.0 5 92 0 1
273 1 200 5 5 1 1 1
274 2 205 2.5 5 93 1 1
275 3 205 4.0 5 93 0 1
276 1 205 5 5 1 1 1
277 2 210 2.5 5 94 1 1
278 3 210 4.0 5 94 0 1
279 1 210 5 5 1 1 1
280 2 215 2.5 5 95 1 1
281 3 215 4.0 5 95 0 1
282 1 215 5 5 1 1 1
283 2 220 2.5 5 96 1 1
284 3 220 4.0 5 96 0 1
285 1 220 5 5 1 1 1
286 2 225 2.5 5 97 1 1
287 3 225 4.0 5 97 0 1
288 1 225 5 5 1 1 1
289 2 230 2.5 5 98 1 1
290 3 230 4.0 5 98 0 1
291 1 230 5 5 1 1 1
292 2 235 2.5 5 99 1 1
293 3 235 4.0 5 99 0 1
294 1 235 5 5 1 1 1
295 2 240 2.5 5 100 1 1
296 3 240 4.0 5 100 0 1
297 1 240 5 5 1 1 1
298 2 245 2.5 5 101 1 1
299 3 245 4.0 5 101 0 1
300 1 245 5 5 1 1 1
301 2 250 2.5 5 102 1 1
302 3 250 4.0 5 102 0 1
303 1 250 5 5 1 1 1
304 2 255 2.5 5 103 1 1
305 3 255 4.0 5 103 0 1
306 1 255 5 5 1 1 1
307 2 5 2.5 10 104 1 1
308 3 5 4.0 10 104 0 1
309 1 5 5 10 1 1 1
310 2 10 2.5 10 105 1 1
311 3 10 4.0 10 105 0 1
312 1 10 5 10 1 1 1
313 2 15 2.5 10 106 1 1
314 3 15 4.0 10 106 0 1
315 1 15 5 10 1 1 1
316 2 20 2.5 10 107 1 1
317 3 20 4.0 10 107 0 1
318 1 20 5 10 1 1 1
319 2 25 2.5 10 108 1 1
320 3 25 4.0 10 108 0 1
321 1 25 5 10 1 1 1
322 2 30 2.5 10 109 1 1
323 3 30 4.0 10 109 0 1
324 1 30 5 10 1 1 1
325 2 35 2.5 10 110 1 1
326 3 35 4.0 10 110 0 1
327 1 35 5 10 1 1 1
328 2 40 2.5 10 111 1 1
329 3 40 4.0 10 111 0 1
330 1 40 5 10 1 1 1
331 2 45 2.5 10 112 1 1
332 3 45 4.0 10 112 0 1
333 1 45 5 10 1 1 1
334 2 50 2.5 10 113 1 1
335 3 50 4.0 10 113 0 1
336 1 50 5 10 1 1 1
337 2 55 2.5 10 114 1 1
338 3 55 4.0 10 114 0 1
339 1 55 5 10 1 1 1
340 2 60 2.5 10 115 1 1
341 3 60 4.0 10 115 0 1
342 1 60 5 10 1 1 1
343 2 65 2.5 10 116 1 1
344 3 65 4.0 10 116 0 1
345 1 65 5 10 1 1 1
346 2 70 2.5 10 117 1 1
347 3 70 4.0 10 117 0 1
348 1 70 5 10 1 1 1
349 2 75 2.5 10 118 1 1
350 3 75 4.0 10 118 0 1
351 1 75 5 10 1 1 1
352 2 80 2.5 10 119 1 1
353 3 80 4.0 10 119 0 1
354 1 80 5 10 1 1 1
355 2 85 2.5 10 120 1 1
356 3 85 4.0 10 120 0 1
357 1 85 5 10 1 1 1
358 2 90 2.5 10 121 1 1
359 3 90 4.0 10 121 0 1
360 1 90 5 10 1 1 1
361 2 95 2.5 10 122 1 1
362 3 95 4.0 10 122 0 1
363 1 95 5 10 1 1 1
364 2 100 2.5 10 123 1 1
365 3 100 4.0 10 123 0 1
366 1 100 5 10 1 1 1
367 2 105 2.5 10 124 1 1
368 3 105 4.0 10 124 0 1
369 1 105 5 10 1 1 1
370 2 110 2.5 10 125 1 1
371 3 110 4.0 10 125 0 1
372 1 110 5 10 1 1 1
373 2 115 2.5 10 126 1 1
374 3 115 4.0 10 126 0 1
375 1 115 5 10 1 1 1
376 2 120 2.5 10 127 1 1
377 3 120 4.0 10 127 0 1
378 1 120 5 10 1 1 1
379 2 125 2.5 10 128 1 1
380 3 125 4.0 10 128 0 1
381 1 125 5 10 1 1 1
382 2 130 2.5 10 129 1 1
383 3 130 4.0 10 129 0 1
384 1 130 5 10 1 1 1
385 2 135 2.5 10 130 1 1
386 3 135 4.0 10 130 0 1
387 1 135 5 10 1 1 1
388 2 140 2.5 10 131 1 1
389 3 140 4.0 10 131 0 1
390 1 140 5 10 1 1 1
391 2 145 2.5 10 132 1 1
392 3 145 4.0 10 132 0 1
393 1 145 5 10 1 1 1
394 2 150 2.5 10 133 1 1
395 3 150 4.0 10 133 0 1
396 1 150 5 10 1 1 1
397 2 155 2.5 10 134 1 1
398 3 155 4.0 10 134 0 1
399 1 155 5 10 1 1 1
400 2 160 2.5 10 135 1 1
401 3 160 4.0 10 135 0 1
402 1 160 5 10 1 1 1
403 2 165 2.5 10 136 1 1
404 3 165 4.0 10 136 0 1
405 1 165 5 10 1 1 1
406 2 170 2.5 10 137 1 1
407 3 170 4.0 10 137 0 1
408 1 170 5 10 1 1 1
409 2 175 2.5 10 138 1 1
410 3 175 4.0 10 138 0 1
411 1 175 5 10 1 1 1
412 2 180 2.5 10 139 1 1
413 3 180 4.0 10 139 0 1
414 1 180 5 10 1 1 1
415 2 185 2.5 10 140 1 1
416 3 185 4.0 10 140 0 1
417 1 185 5 10 1 1 1
418 2 190 2.5 10 141 1 1
419 3 190 4.0 10 141 0 1
420 1 190 5 10 1 1 1
421 2 195 2.5 10 142 1 1
422 3 195 4.0 10 142 0 1
423 1 195 5 10 1 1 1
424 2 200 2.5 10 143 1 1
425 3 200 4.0 10 143 0 1
426 1 200 5 10 1 1 1
427 2 205 2.5 10 144 1 1
428 3 205 4.0 10 144 0 1
429 1 205 5 10 1 1 1
430 2 210 2.5 10 145 1 1
431 3 210 4.0 10 145 0 1
432 1 210 5 10 1 1 1
433 2 215 2.5 10 146 1 1
434 3 215 4.0 10 146 0 1
435 1 215 5 10 1 1 1
436 2 220 2.5 10 147 1 1
437 3 220 4.0 10 147 0 1
438 1 220 5 10 1 1 1
439 2 225 2.5 10 148 1 1
440 3 225 4.0 10 148 0 1
441 1 225 5 10 1 1 1
442 2 230 2.5 10 149 1 1
443 3 230 4.0 10 149 0 1
444 1 230 5 10 1 1 1
445 2 235 2.5 10 150 1 1
446 3 235 4.0 10 150 0 1
447 1 235 5 10 1 1 1
448 2 240 2.5 10 151 1 1
449 3 240 4.0 10 151 0 1
450 1 240 5 10 1 1 1
451 2 245 2.5 10 152 1 1
452 3 245 4.0 10 152 0 1
453 1 245 5 10 1 1 1
454 2 250 2.5 10 153 1 1
455 3 250 4.0 10 153 0 1
456 1 250 5 10 1 1 1
457 2 255 2.5 10 154 1 1
458 3 255 4.0 10 154 0 1
459 1 255 5 10 1 1 1
460 2 5 2.5 15 155 1 1
461 3 5 4.0 15 155 0 1
462 1 5 5 15 1 1 1
463 2 10 2.5 15 156 1 1
464 3 10 4.0 15 156 0 1
465 1 10 5 15 1 1 1
466 2 15 2.5 15 157 1 1
467 3 15 4.0 15 157 0 1
468 1 15 5 15 1 1 1
469 2 20 2.5 15 158 1 1
470 3 20 4.0 15 158 0 1
471 1 20 5 15 1 1 1
472 2 25 2.5 15 159 1 1
473 3 25 4.0 15 159 0 1
474 1 25 5 15 1 1 1
475 2 30 2.5 15 160 1 1
476 3 30 4.0 15 160 0 1
477 1 30 5 15 1 1 1
478 2 35 2.5 15 161 1 1
479 3 35 4.0 15 161 0 1
480 1 35 5 15 1 1 1
481 2 40 2.5 15 162 1 1
482 3 40 4.0 15 162 0 1
483 1 40 5 15 1 1 1
484 2 45 2.5 15 163 1 1
485 3 45 4.0 15 163 0 1
486 1 45 5 15 1 1 1
487 2 50 2.5 15 164 1 1
488 3 50 4.0 15 164 0 1
489 1 50 5 15 1 1 1
490 2 55 2.5 15 165 1 1
491 3 55 4.0 15 165 0 1
492 1 55 5 15 1 1 1
493 2 60 2.5 15 166 1 1
494 3 60 4.0 15 166 0 1
495 1 60 5 15 1 1 1
496 2 65 2.5 15 167 1 1
497 3 65 4.0 15 167 0 1
498 1 65 5 15 1 1 1
499 2 70 2.5 15 168 1 1
500 3 70 4.0 15 168 0 1
501 1 70 5 15 1 1 1
502 2 75 2.5 15 169 1 1
503 3 75 4.0 15 169 0 1
504 1 75 5 15 1 1 1
505 2 80 2.5 15 170 1 1
506 3 80 4.0 15 170 0 1
507 1 80 5 15 1 1 1
508 2 85 2.5 15 171 1 1
509 3 85 4.0 15 171 0 1
510 1 85 5 15 1 1 1
511 2 90 2.5 15 172 1 1
512 3 90 4.0 15 172 0 1
513 1 90 5 15 1 1 1
514 2 95 2.5 15 173 1 1
515 3 95 4.0 15 173 0 1
516 1 95 5 15 1 1 1
517 2 100 2.5 15 174 1 1
518 3 100 4.0 15 174 0 1
519 1 100 5 15 1 1 1
520 2 105 2.5 15 175 1 1
521 3 105 4.0 15 175 0 1
522 1 105 5 15 1 1 1
523 2 110 2.5 15 176 1 1
524 3 110 4.0 15 176 0 1
525 1 110 5 15 1 1 1
526 2 115 2.5 15 177 1 1
527 3 115 4.0 15 177 0 1
528 1 115 5 15 1 1 1
529 2 120 2.5 15 178 1 1
530 3 120 4.0 15 178 0 1
531 1 120 5 15 1 1 1
532 2 125 2.5 15 179 1 1
533 3 125 4.0 15 179 0 1
534 1 125 5 15 1 1 1
535 2 130 2.5 15 180 1 1
536 3 130 4.0 15 180 0 1
537 1 130 5 15 1 1 1
538 2 135 2.5 15 181 1 1
539 3 135 4.0 15 181 0 1
540 1 135 5 15 1 1 1
541 2 140 2.5 15 182 1 1
542 3 140 4.0 15 182 0 1
543 1 140 5 15 1 1 1
544 2 145 2.5 15 183 1 1
545 3 145 4.0 15 183 0 1
546 1 145 5 15 1 1 1
547 2 150 2.5 15 184 1 1
548 3 150 4.0 15 184 0 1
549 1 150 5 15 1 1 1
550 2 155 2.5 15 185 1 1
551 3 155 4.0 15 185 0 1
552 1 155 5 15 1 1 1
553 2 160 2.5 15 186 1 1
554 3 160 4.0 15 186 0 1
555 1 160 5 15 1 1 1
556 2 165 2.5 15 187 1 1
557 3 165 4.0 15 187 0 1
558 1 165 5 15 1 1 1
559 2 170 2.5 15 188 1 1
560 3 170 4.0 15 188 0 1
561 1 170 5 15 1 1 1
562 2 175 2.5 15 189 1 1
563 3 175 4.0 15 189 0 1
564 1 175 5 15 1 1 1
565 2 180 2.5 15 190 1 1
566 3 180 4.0 15 190 0 1
567 1 180 5 15 1 1 1
568 2 185 2.5 15 191 1 1
569 3 185 4.0 15 191 0 1
570 1 185 5 15 1 1 1
571 2 190 2.5 15 192 1 1
572 3 190 4.0 15 192 0 1
573 1 190 5 15 1 1 1
574 2 195 2.5 15 193 1 1
575 3 195 4.0 15 193 0 1
576 1 195 5 15 1 1 1
577 2 200 2.5 15 194 1 1
578 3 200 4.0 15 194 0 1
579 1 200 5 15 1 1 1
580 2 205 2.5 15 195 1 1
581 3 205 4.0 15 195 0 1
582 1 205 5 15 1 1 1
583 2 210 2.5 15 196 1 1
584 3 210 4.0 15 196 0 1
585 1 210 5 15 1 1 1
586 2 215 2.5 15 197 1 1
587 3 215 4.0 15 197 0 1
588 1 215 5 15 1 1 1
589 2 220 2.5 15 198 1 1
590 3 220 4.0 15 198 0 1
591 1 220 5 15 1 1 1
592 2 225 2.5 15 199 1 1
593 3 225 4.0 15 199 0 1
594 1 225 5 15 1 1 1
595 2 230 2.5 15 200 1 1
596 3 230 4.0 15 200 0 1
597 1 230 5 15 1 1 1
598 2 235 2.5 15 201 1 1
599 3 235 4.0 15 201 0 1
600 1 235 5 15 1 1 1
601 2 240 2.5 15 202 1 1
602 3 240 4.0 15 202 0 1
603 1 240 5 15 1 1 1
604 2 245 2.5 15 203 1 1
605 3 245 4.0 15 203 0 1
606 1 245 5 15 1 1 1
607 2 250 2.5 15 204 1 1
608 3 250 4.0 15 204 0 1
609 1 250 5 15 1 1 1
610 2 255 2.5 15 205 1 1
611 3 255 4.0 15 205 0 1
612 1 255 5 15 1 1 1
613 2 5 2.5 20 206 1 1
614 3 5 4.0 20 206 0 1
615 1 5 5 20 1 1 1
616 2 10 2.5 20 207 1 1
617 3 10 4.0 20 207 0 1
618 1 10 5 20 1 1 1
619 2 15 2.5 20 208 1 1
620 3 15 4.0 20 208 0 1
621 1 15 5 20 1 1 1
622 2 20 2.5 20 209 1 1
623 3 20 4.0 20 209 0 1
624 1 20 5 20 1 1 1
625 2 25 2.5 20 210 1 1
626 3 25 4.0 20 210 0 1
627 1 25 5 20 1 1 1
628 2 30 2.5 20 211 1 1
629 3 30 4.0 20 211 0 1
630 1 30 5 20 1 1 1
631 2 35 2.5 20 212 1 1
632 3 35 4.0 20 212 0 1
633 1 35 5 20 1 1 1
634 2 40 2.5 20 213 1 1
635 3 40 4.0 20 213 0 1
636 1 40 5 20 1 1 1
637 2 45 2.5 20 214 1 1
638 3 45 4.0 20 214 0 1
639 1 45 5 20 1 1 1
640 2 50 2.5 20 215 1 1
641 3 50 4.0 20 215 0 1
642 1 50 5 20 1 1 1
643 2 55 2.5 20 216 1 1
644 3 55 4.0 20 216 0 1
645 1 55 5 20 1 1 1
646 2 60 2.5 20 217 1 1
647 3 60 4.0 20 217 0 1
648 1 60 5 20 1 1 1
649 2 65 2.5 20 218 1 1
650 3 65 4.0 20 218 0 1
651 1 65 5 20 1 1 1
652 2 70 2.5 20 219 1 1
653 3 70 4.0 20 219 0 1
654 1 70 5 20 1 1 1
655 2 75 2.5 20 220 1 1
656 3 75 4.0 20 220 0 1
657 1 75 5 20 1 1 1
658 2 80 2.5 20 221 1 1
659 3 80 4.0 20 221 0 1
660 1 80 5 20 1 1 1
661 2 85 2.5 20 222 1 1
662 3 85 4.0 20 222 0 1
663 1 85 5 20 1 1 1
664 2 90 2.5 20 223 1 1
665 3 90 4.0 20 223 0 1
666 1 90 5 20 1 1 1
667 2 95 2.5 20 224 1 1
668 3 95 4.0 20 224 0 1
669 1 95 5 20 1 1 1
670 2 100 2.5 20 225 1 1
671 3 100 4.0 20 225 0 1
672 1 100 5 20 1 1 1
673 2 105 2.5 20 226 1 1
674 3 105 4.0 20 226 0 1
675 1 105 5 20 1 1 1
676 2 110 2.5 20 227 1 1
677 3 110 4.0 20 227 0 1
678 1 110 5 20 1 1 1
679 2 115 2.5 20 228 1 1
680 3 115 4.0 20 228 0 1
681 1 115 5 20 1 1 1
682 2 120 2.5 20 229 1 1
683 3 120 4.0 20 229 0 1
684 1 120 5 20 1 1 1
685 2 125 2.5 20 230 1 1
686 3 125 4.0 20 230 0 1
687 1 125 5 20 1 1 1
688 2 130 2.5 20 231 1 1
689 3 130 4.0 20 231 0 1
690 1 130 5 20 1 1 1
691 2 135 2.5 20 232 1 1
692 3 135 4.0 20 232 0 1
693 1 135 5 20 1 1 1
694 2 140 2.5 20 233 1 1
695 3 140 4.0 20 233 0 1
696 1 140 5 20 1 1 1
697 2 145 2.5 20 234 1 1
698 3 145 4.0 20 234 0 1
699 1 145 5 20 1 1 1
700 2 150 2.5 20 235 1 1
701 3 150 4.0 20 235 0 1
702 1 150 5 20 1 1 1
703 2 155 2.5 20 236 1 1
704 3 155 4.0 20 236 0 1
705 1 155 5 20 1 1 1
706 2 160 2.5 20 237 1 1
707 3 160 4.0 20 237 0 1
708 1 160 5 20 1 1 1
709 2 165 2.5 20 238 1 1
710 3 165 4.0 20 238 0 1
711 1 165 5 20 1 1 1
712 2 170 2.5 20 239 1 1
713 3 170 4.0 20 239 0 1
714 1 170 5 20 1 1 1
715 2 175 2.5 20 240 1 1
716 3 175 4.0 20 240 0 1
717 1 175 5 20 1 1 1
718 2 180 2.5 20 241 1 1
719 3 180 4.0 20 241 0 1
720 1 180 5 20 1 1 1
721 2 185 2.5 20 242 1 1
722 3 185 4.0 20 242 0 1
723 1 185 5 20 1 1 1
724 2 190 2.5 20 243 1 1
725 3 190 4.0 20 243 0 1
726 1 190 5 20 1 1 1
727 2 195 2.5 20 244 1 1
728 3 195 4.0 20 244 0 1
729 1 195 5 20 1 1 1
730 2 200 2.5 20 245 1 1
731 3 200 4.0 20 245 0 1
732 1 200 5 20 1 1 1
733 2 205 2.5 20 246 1 1
734 3 205 4.0 20 246 0 1
735 1 205 5 20 1 1 1
736 2 210 2.5 20 247 1 1
737 3 210 4.0 20 247 0 1
738 1 210 5 20 1 1 1
739 2 215 2.5 20 248 1 1
740 3 215 4.0 20 248 0 1
741 1 215 5 20 1 1 1
742 2 220 2.5 20 249 1 1
743 3 220 4.0 20 249 0 1
744 1 220 5 20 1 1 1
745 2 225 2.5 20 250 1 1
746 3 225 4.0 20 250 0 1
747 1 225 5 20 1 1 1
748 2 230 2.5 20 251 1 1
749 3 230 4.0 20 251 0 1
750 1 230 5 20 1 1 1
751 2 235 2.5 20 252 1 1
752 3 235 4.0 20 252 0 1
753 1 235 5 20 1 1 1
754 2 240 2.5 20 253 1 1
755 3 240 4.0 20 253 0 1
756 1 240 5 20 1 1 1
757 2 245 2.5 20 254 1 1
758 3 245 4.0 20 254 0 1
759 1 245 5 20 1 1 1
760 2 250 2.5 20 255 1 1
761 3 250 4.0 20 255 0 1
762 1 250 5 20 1 1 1
763 2 255 2.5 20 256 1 1
764 3 255 4.0 20 256 0 1
765 1 255 5 20 1 1 1
766 2 5 2.5 25 257 1 1
767 3 5 4.0 25 257 0 1
768 1 5 5 25 1 1 1
769 2 10 2.5 25 258 1 1
770 3 10 4.0 25 258 0 1
771 1 10 5 25 1 1 1
772 2 15 2.5 25 259 1 1
773 3 15 4.0 25 259 0 1
774 1 15 5 25 1 1 1
775 2 20 2.5 25 260 1 1
776 3 20 4.0 25 260 0 1
777 1 20 5 25 1 1 1
778 2 25 2.5 25 261 1 1
779 3 25 4.0 25 261 0 1
780 1 25 5 25 1 1 1
781 2 30 2.5 25 262 1 1
782 3 30 4.0 25 262 0 1
783 1 30 5 25 1 1 1
784 2 35 2.5 25 263 1 1
785 3 35 4.0 25 263 0 1
786 1 35 5 25 1 1 1
787 2 40 2.5 25 264 1 1
788 3 40 4.0 25 264 0 1
789 1 40 5 25 1 1 1
790 2 45 2.5 25 265 1 1
791 3 45 4.0 25 265 0 1
792 1 45 5 25 1 1 1
793 2 50 2.5 25 266 1 1
794 3 50 4.0 25 266 0 1
795 1 50 5 25 1 1 1
796 2 55 2.5 25 267 1 1
797 3 55 4.0 25 267 0 1
798 1 55 5 25 1 1 1
799 2 60 2.5 25 268 1 1
800 3 60 4.0 25 268 0 1
801 1 60 5 25 1 1 1
802 2 65 2.5 25 269 1 1
803 3 65 4.0 25 269 0 1
804 1 65 5 25 1 1 1
805 2 70 2.5 25 270 1 1
806 3 70 4.0 25 270 0 1
807 1 70 5 25 1 1 1
808 2 75 2.5 25 271 1 1
809 3 75 4.0 25 271 0 1
810 1 75 5 25 1 1 1
811 2 80 2.5 25 272 1 1
812 3 80 4.0 25 272 0 1
813 1 80 5 25 1 1 1
814 2 85 2.5 25 273 1 1
815 3 85 4.0 25 273 0 1
816 1 85 5 25 1 1 1
817 2 90 2.5 25 274 1 1
818 3 90 4.0 25 274 0 1
819 1 90 5 25 1 1 1
820 2 95 2.5 25 275 1 1
821 3 95 4.0 25 275 0 1
822 1 95 5 25 1 1 1
823 2 100 2.5 25 276 1 1
824 3 100 4.0 25 276 0 1
825 1 100 5 25 1 1 1
826 2 105 2.5 25 277 1 1
827 3 105 4.0 25 277 0 1
828 1 105 5 25 1 1 1
829 2 110 2.5 25 278 1 1
830 3 110 4.0 25 278 0 1
831 1 110 5 25 1 1 1
832 2 115 2.5 25 279 1 1
833 3 115 4.0 25 279 0 1
834 1 115 5 25 1 1 1
835 2 120 2.5 25 280 1 1
836 3 120 4.0 25 280 0 1
837 1 120 5 25 1 1 1
838 2 125 2.5 25 281 1 1
839 3 125 4.0 25 281 0 1
840 1 125 5 25 1 1 1
841 2 130 2.5 25 282 1 1
842 3 130 4.0 25 282 0 1
843 1 130 5 25 1 1 1
844 2 135 2.5 25 283 1 1
845 3 135 4.0 25 283 0 1
846 1 135 5 25 1 1 1
847 2 140 2.5 25 284 1 1
848 3 140 4.0 25 284 0 1
849 1 140 5 25 1 1 1
850 2 145 2.5 25 285 1 1
851 3 145 4.0 25 285 0 1
852 1 145 5 25 1 1 1
853 2 150 2.5 25 286 1 1
854 3 150 4.0 25 286 0 1
855 1 150 5 25 1 1 1
856 2 155 2.5 25 287 1 1
857 3 155 4.0 25 287 0 1
858 1 155 5 25 1 1 1
859 2 160 2.5 25 288 1 1
860 3 160 4.0 25 288 0 1
861 1 160 5 25 1 1 1
862 2 165 2.5 25 289 1 1
863 3 165 4.0 25 289 0 1
864 1 165 5 25 1 1 1
865 2 170 2.5 25 290 1 1
866 3 170 4.0 25 290 0 1
867 1 170 5 25 1 1 1
868 2 175 2.5 25 291 1 1
869 3 175 4.0 25 291 0 1
870 1 175 5 25 1 1 1
871 2 180 2.5 25 292 1 1
872 3 180 4.0 25 292 0 1
873 1 180 5 25 1 1 1
874 2 185 2.5 25 293 1 1
875 3 185 4.0 25 293 0 1
876 1 185 5 25 1 1 1
877 2 190 2.5 25 294 1 1
878 3 190 4.0 25 294 0 1
879 1 190 5 25 1 1 1
880 2 195 2.5 25 295 1 1
881 3 195 4.0 25 295 0 1
882 1 195 5 25 1 1 1
883 2 200 2.5 25 296 1 1
884 3 200 4.0 25 296 0 1
885 1 200 5 25 1 1 1
886 2 205 2.5 25 297 1 1
887 3 205 4.0 25 297 0 1
888 1 205 5 25 1 1 1
889 2 210 2.5 25 298 1 1
890 3 210 4.0 25 298 0 1
891 1 210 5 25 1 1 1
892 2 215 2.5 25 299 1 1
893 3 215 4.0 25 299 0 1
894 1 215 5 25 1 1 1
895 2 220 2.5 25 300 1 1
896 3 220 4.0 25 300 0 1
897 1 220 5 25 1 1 1
898 2 225 2.5 25 301 1 1
899 3 225 4.0 25 301 0 1
900 1 225 5 25 1 1 1
901 2 230 2.5 25 302 1 1
902 3 230 4.0 25 302 0 1
903 1 230 5 25 1 1 1
904 2 235 2.5 25 303 1 1
905 3 235 4.0 25 303 0 1
906 1 235 5 25 1 1 1
907 2 240 2.5 25 304 1 1
908 3 240 4.0 25 304 0 1
909 1 240 5 25 1 1 1
910 2 245 2.5 25 305 1 1
911 3 245 4.0 25 305 0 1
912 1 245 5 25 1 1 1
913 2 250 2.5 25 306 1 1
914 3 250 4.0 25 306 0 1
915 1 250 5 25 1 1 1
916 2 255 2.5 25 307 1 1
917 3 255 4.0 25 307 0 1
918 1 255 5 25 1 1 1
919 2 5 2.5 30 308 1 1
920 3 5 4.0 30 308 0 1
921 1 5 5 30 1 1 1
922 2 10 2.5 30 309 1 1
923 3 10 4.0 30 309 0 1
924 1 10 5 30 1 1 1
925 2 15 2.5 30 310 1 1
926 3 15 4.0 30 310 0 1
927 1 15 5 30 1 1 1
928 2 20 2.5 30 311 1 1
929 3 20 4.0 30 311 0 1
930 1 20 5 30 1 1 1
931 2 25 2.5 30 312 1 1
932 3 25 4.0 30 312 0 1
933 1 25 5 30 1 1 1
934 2 30 2.5 30 313 1 1
935 3 30 4.0 30 313 0 1
936 1 30 5 30 1 1 1
937 2 35 2.5 30 314 1 1
938 3 35 4.0 30 314 0 1
939 1 35 5 30 1 1 1
940 2 40 2.5 30 315 1 1
941 3 40 4.0 30 315 0 1
942 1 40 5 30 1 1 1
943 2 45 2.5 30 316 1 1
944 3 45 4.0 30 316 0 1
945 1 45 5 30 1 1 1
946 2 50 2.5 30 317 1 1
947 3 50 4.0 30 317 0 1
948 1 50 5 30 1 1 1
949 2 55 2.5 30 318 1 1
950 3 55 4.0 30 318 0 1
951 1 55 5 30 1 1 1
952 2 60 2.5 30 319 1 1
953 3 60 4.0 30 319 0 1
954 1 60 5 30 1 1 1
955 2 65 2.5 30 320 1 1
956 3 65 4.0 30 320 0 1
957 1 65 5 30 1 1 1
958 2 70 2.5 30 321 1 1
959 3 70 4.0 30 321 0 1
960 1 70 5 30 1 1 1
961 2 75 2.5 30 322 1 1
962 3 75 4.0 30 322 0 1
963 1 75 5 30 1 1 1
964 2 80 2.5 30 323 1 1
965 3 80 4.0 30 323 0 1
966 1 80 5 30 1 1 1
967 2 85 2.5 30 324 1 1
968 3 85 4.0 30 324 0 1
969 1 85 5 30 1 1 1
970 2 90 2.5 30 325 1 1
971 3 90 4.0 30 325 0 1
972 1 90 5 30 1 1 1
973 2 95 2.5 30 326 1 1
974 3 95 4.0 30 326 0 1
975 1 95 5 30 1 1 1
976 2 100 2.5 30 327 1 1
977 3 100 4.0 30 327 0 1
978 1 100 5 30 1 1 1
979 2 105 2.5 30 328 1 1
980 3 105 4.0 30 328 0 1
981 1 105 5 30 1 1 1
982 2 110 2.5 30 329 1 1
983 3 110 4.0 30 329 0 1
984 1 110 5 30 1 1 1
985 2 115 2.5 30 330 1 1
986 3 115 4.0 30 330 0 1
987 1 115 5 30 1 1 1
988 2 120 2.5 30 331 1 1
989 3 120 4.0 30 331 0 1
990 1 120 5 30 1 1 1
991 2 125 2.5 30 332 1 1
992 3 125 4.0 30 332 0 1
993 1 125 5 30 1 1 1
994 2 130 2.5 30 333 1 1
995 3 130 4.0 30 333 0 1
996 1 130 5 30 1 1 1
997 2 135 2.5 30 334 1 1
998 3 135 4.0 30 334 0 1
999 1 135 5 30 1 1 1
1000 2 140 2.5 30 335 1 1
1001 3 140 4.0 30 335 0 1
1002 1 140 5 30 1 1 1
1003 2 145 2.5 30 336 1 1
1004 3 145 4.0 30 336 0 1
1005 1 145 5 30 1 1 1
1006 2 150 2.5 30 337 1 1
1007 3 150 4.0 30 337 0 1
1008 1 150 5 30 1 1 1
1009 2 155 2.5 30 338 1 1
1010 3 155 4.0 30 338 0 1
1011 1 155 5 30 1 1 1
1012 2 160 2.5 30 339 1 1
1013 3 160 4.0 30 339 0 1
1014 1 160 5 30 1 1 1
1015 2 165 2.5 30 340 1 1
1016 3 165 4.0 30 340 0 1
1017 1 165 5 30 1 1 1
1018 2 170 2.5 30 341 1 1
1019 3 170 4.0 30 341 0 1
1020 1 170 5 30 1 1 1
1021 2 175 2.5 30 342 1 1
1022 3 175 4.0 30 342 0 1
1023 1 175 5 30 1 1 1
1024 2 180 2.5 30 343 1 1
1025 3 180 4.0 30 343 0 1
1026 1 180 5 30 1 1 1
1027 2 185 2.5 30 344 1 1
1028 3 185 4.0 30 344 0 1
1029 1 185 5 30 1 1 1
1030 2 190 2.5 30 345 1 1
1031 3 190 4.0 30 345 0 1
1032 1 190 5 30 1 1 1
1033 2 195 2.5 30 346 1 1
1034 3 195 4.0 30 346 0 1
1035 1 195 5 30 1 1 1
1036 2 200 2.5 30 347 1 1
1037 3 200 4.0 30 347 0 1
1038 1 200 5 30 1 1 1
1039 2 205 2.5 30 348 1 1
1040 3 205 4.0 30 348 0 1
1041 1 205 5 30 1 1 1
1042 2 210 2.5 30 349 1 1
1043 3 210 4.0 30 349 0 1
1044 1 210 5 30 1 1 1
1045 2 215 2.5 30 350 1 1
1046 3 215 4.0 30 350 0 1
1047 1 215 5 30 1 1 1
1048 2 220 2.5 30 351 1 1
1049 3 220 4.0 30 351 0 1
1050 1 220 5 30 1 1 1
1051 2 225 2.5 30 352 1 1
1052 3 225 4.0 30 352 0 1
1053 1 225 5 30 1 1 1
1054 2 230 2.5 30 353 1 1
1055 3 230 4.0 30 353 0 1
1056 1 230 5 30 1 1 1
1057 2 235 2.5 30 354 1 1
1058 3 235 4.0 30 354 0 1
1059 1 235 5 30 1 1 1
1060 2 240 2.5 30 355 1 1
1061 3 240 4.0 30 355 0 1
1062 1 240 5 30 1 1 1
1063 2 245 2.5 30 356 1 1
1064 3 245 4.0 30 356 0 1
1065 1 245 5 30 1 1 1
1066 2 250 2.5 30 357 1 1
1067 3 250 4.0 30 357 0 1
1068 1 250 5 30 1 1 1
1069 2 255 2.5 30 358 1 1
1070 3 255 4.0 30 358 0 1
1071 1 255 5 30 1 1 1
1072 2 5 2.5 35 359 1 1
1073 3 5 4.0 35 359 0 1
1074 1 5 5 35 1 1 1
1075 2 10 2.5 35 360 1 1
1076 3 10 4.0 35 360 0 1
1077 1 10 5 35 1 1 1
1078 2 15 2.5 35 361 1 1
1079 3 15 4.0 35 361 0 1
1080 1 15 5 35 1 1 1
1081 2 20 2.5 35 362 1 1
1082 3 20 4.0 35 362 0 1
1083 1 20 5 35 1 1 1
1084 2 25 2.5 35 363 1 1
1085 3 25 4.0 35 363 0 1
1086 1 25 5 35 1 1 1
1087 2 30 2.5 35 364 1 1
1088 3 30 4.0 35 364 0 1
1089 1 30 5 35 1 1 1
1090 2 35 2.5 35 365 1 1
1091 3 35 4.0 35 365 0 1
1092 1 35 5 35 1 1 1
1093 2 40 2.5 35 366 1 1
1094 3 40 4.0 35 366 0 1
1095 1 40 5 35 1 1 1
1096 2 45 2.5 35 367 1 1
1097 3 45 4.0 35 367 0 1
1098 1 45 5 35 1 1 1
1099 2 50 2.5 35 368 1 1
1100 3 50 4.0 35 368 0 1
1101 1 50 5 35 1 1 1
1102 2 55 2.5 35 369 1 1
1103 3 55 4.0 35 369 0 1
1104 1 55 5 35 1 1 1
1105 2 60 2.5 35 370 1 1
1106 3 60 4.0 35 370 0 1
1107 1 60 5 35 1 1 1
1108 2 65 2.5 35 371 1 1
1109 3 65 4.0 35 371 0 1
1110 1 65 5 35 1 1 1
1111 2 70 2.5 35 372 1 1
1112 3 70 4.0 35 372 0 1
1113 1 70 5 35 1 1 1
1114 2 75 2.5 35 373 1 1
1115 3 75 4.0 35 373 0 1
1116 1 75 5 35 1 1 1
1117 2 80 2.5 35 374 1 1
1118 3 80 4.0 35 374 0 1
1119 1 80 5 35 1 1 1
1120 2 85 2.5 35 375 1 1
1121 3 85 4.0 35 375 0 1
1122 1 85 5 35 1 1 1
1123 2 90 2.5 35 376 1 1
1124 3 90 4.0 35 376 0 1
1125 1 90 5 35 1 1 1
1126 2 95 2.5 35 377 1 1
1127 3 95 4.0 35 377 0 1
1128 1 95 5 35 1 1 1
1129 2 100 2.5 35 378 1 1
1130 3 100 4.0 35 378 0 1
1131 1 100 5 35 1 1 1
1132 2 105 2.5 35 379 1 1
1133 3 105 4.0 35 379 0 1
1134 1 105 5 35 1 1 1
1135 2 110 2.5 35 380 1 1
1136 3 110 4.0 35 380 0 1
1137 1 110 5 35 1 1 1
1138 2 115 2.5 35 381 1 1
1139 3 115 4.0 35 381 0 1
1140 1 115 5 35 1 1 1
1141 2 120 2.5 35 382 1 1
1142 3 120 4.0 35 382 0 1
1143 1 120 5 35 1 1 1
1144 2 125 2.5 35 383 1 1
1145 3 125 4.0 35 383 0 1
1146 1 125 5 35 1 1 1
1147 2 130 2.5 35 384 1 1
1148 3 130 4.0 35 384 0 1
1149 1 130 5 35 1 1 1
1150 2 135 2.5 35 385 1 1
1151 3 135 4.0 35 385 0 1
1152 1 135 5 35 1 1 1
1153 2 140 2.5 35 386 1 1
1154 3 140 4.0 35 386 0 1
1155 1 140 5 35 1 1 1
1156 2 145 2.5 35 387 1 1
1157 3 145 4.0 35 387 0 1
1158 1 145 5 35 1 1 1
1159 2 150 2.5 35 388 1 1
1160 3 150 4.0 35 388 0 1
1161 1 150 5 35 1 1 1
1162 2 155 2.5 35 389 1 1
1163 3 155 4.0 35 389 0 1
1164 1 155 5 35 1 1 1
1165 2 160 2.5 35 390 1 1
1166 3 160 4.0 35 390 0 1
1167 1 160 5 35 1 1 1
1168 2 165 2.5 35 391 1 1
1169 3 165 4.0 35 391 0 1
1170 1 165 5 35 1 1 1
1171 2 170 2.5 35 392 1 1
1172 3 170 4.0 35 392 0 1
1173 1 170 5 35 1 1 1
1174 2 175 2.5 35 393 1 1
1175 3 175 4.0 35 393 0 1
1176 1 175 5 35 1 1 1
1177 2 180 2.5 35 394 1 1
1178 3 180 4.0 35 394 0 1
1179 1 180 5 35 1 1 1
1180 2 185 2.5 35 395 1 1
1181 3 185 4.0 35 395 0 1
1182 1 185 5 35 1 1 1
1183 2 190 2.5 35 396 1 1
1184 3 190 4.0 35 396 0 1
1185 1 190 5 35 1 1 1
1186 2 195 2.5 35 397 1 1
1187 3 195 4.0 35 397 0 1
1188 1 195 5 35 1 1 1
1189 2 200 2.5 35 398 1 1
1190 3 200 4.0 35 398 0 1
1191 1 200 5 35 1 1 1
1192 2 205 2.5 35 399 1 1
1193 3 205 4.0 35 399 0 1
1194 1 205 5 35 1 1 1
1195 2 210 2.5 35 400 1 1
1196 3 210 4.0 35 400 0 1
1197 1 210 5 35 1 1 1
1198 2 215 2.5 35 401 1 1
1199 3 215 4.0 35 401 0 1
1200 1 215 5 35 1 1 1
1201 2 220 2.5 35 402 1 1
1202 3 220 4.0 35 402 0 1
1203 1 220 5 35 1 1 1
1204 2 225 2.5 35 403 1 1
1205 3 225 4.0 35 403 0 1
1206 1 225 5 35 1 1 1
1207 2 230 2.5 35 404 1 1
1208 3 230 4.0 35 404 0 1
1209 1 230 5 35 1 1 1
1210 2 235 2.5 35 405 1 1
1211 3 235 4.0 35 405 0 1
1212 1 235 5 35 1 1 1
1213 2 240 2.5 35 406 1 1
1214 3 240 4.0 35 406 0 1
1215 1 240 5 35 1 1 1
1216 2 245 2.5 35 407 1 1
1217 3 245 4.0 35 407 0 1
1218 1 245 5 35 1 1 1
1219 2 250 2.5 35 408 1 1
1220 3 250 4.0 35 408 0 1
1221 1 250 5 35 1 1 1
1222 2 255 2.5 35 409 1 1
1223 3 255 4.0 35 409 0 1
1224 1 255 5 35 1 1 1
1225 2 5 2.5 40 410 1 1
1226 3 5 4.0 40 410 0 1
1227 1 5 5 40 1 1 1
1228 2 10 2.5 40 411 1 1
1229 3 10 4.0 40 411 0 1
1230 1 10 5 40 1 1 1
1231 2 15 2.5 40 412 1 1
1232 3 15 4.0 40 412 0 1
1233 1 15 5 40 1 1 1
1234 2 20 2.5 40 413 1 1
1235 3 20 4.0 40 413 0 1
1236 1 20 5 40 1 1 1
1237 2 25 2.5 40 414 1 1
1238 3 25 4.0 40 414 0 1
1239 1 25 5 40 1 1 1
1240 2 30 2.5 40 415 1 1
1241 3 30 4.0 40 415 0 1
1242 1 30 5 40 1 1 1
1243 2 35 2.5 40 416 1 1
1244 3 35 4.0 40 416 0 1
1245 1 35 5 40 1 1 1
1246 2 40 2.5 40 417 1 1
1247 3 40 4.0 40 417 0 1
1248 1 40 5 40 1 1 1
1249 2 45 2.5 40 418 1 1
1250 3 45 4.0 40 418 0 1
1251 1 45 5 40 1 1 1
1252 2 50 2.5 40 419 1 1
1253 3 50 4.0 40 419 0 1
1254 1 50 5 40 1 1 1
1255 2 55 2.5 40 420 1 1
1256 3 55 4.0 40 420 0 1
1257 1 55 5 40 1 1 1
1258 2 60 2.5 40 421 1 1
1259 3 60 4.0 40 421 0 1
1260 1 60 5 40 1 1 1
1261 2 65 2.5 40 422 1 1
1262 3 65 4.0 40 422 0 1
1263 1 65 5 40 1 1 1
1264 2 70 2.5 40 423 1 1
1265 3 70 4.0 40 423 0 1
1266 1 70 5 40 1 1 1
1267 2 75 2.5 40 424 1 1
1268 3 75 4.0 40 424 0 1
1269 1 75 5 40 1 1 1
1270 2 80 2.5 40 425 1 1
1271 3 80 4.0 40 425 0 1
1272 1 80 5 40 1 1 1
1273 2 85 2.5 40 426 1 1
1274 3 85 4.0 40 426 0 1
1275 1 85 5 40 1 1 1
1276 2 90 2.5 40 427 1 1
1277 3 90 4.0 40 427 0 1
1278 1 90 5 40 1 1 1
1279 2 95 2.5 40 428 1 1
1280 3 95 4.0 40 428 0 1
1281 1 95 5 40 1 1 1
1282 2 100 2.5 40 429 1 1
1283 3 100 4.0 40 429 0 1
1284 1 100 5 40 1 1 1
1285 2 105 2.5 40 430 1 1
1286 3 105 4.0 40 430 0 1
1287 1 105 5 40 1 1 1
1288 2 110 2.5 40 431 1 1
1289 3 110 4.0 40 431 0 1
1290 1 110 5 40 1 1 1
1291 2 115 2.5 40 432 1 1
1292 3 115 4.0 40 432 0 1
1293 1 115 5 40 1 1 1
1294 2 120 2.5 40 433 1 1
1295 3 120 4.0 40 433 0 1